 variables = x , y , T
 Zone i =           71  j =           51
   0.00000000       0.00000000       115.000000    
   0.00000000       9.99999978E-03   20.0000000    
   0.00000000       1.99999996E-02   20.0000000    
   0.00000000       2.99999993E-02   20.0000000    
   0.00000000       3.99999991E-02   20.0000000    
   0.00000000       4.99999970E-02   20.0000000    
   0.00000000       5.99999987E-02   20.0000000    
   0.00000000       7.00000003E-02   20.0000000    
   0.00000000       7.99999982E-02   20.0000000    
   0.00000000       8.99999961E-02   20.0000000    
   0.00000000       9.99999940E-02   20.0000000    
   0.00000000      0.109999999       20.0000000    
   0.00000000      0.119999997       20.0000000    
   0.00000000      0.129999995       20.0000000    
   0.00000000      0.140000001       20.0000000    
   0.00000000      0.149999991       20.0000000    
   0.00000000      0.159999996       20.0000000    
   0.00000000      0.170000002       20.0000000    
   0.00000000      0.179999992       20.0000000    
   0.00000000      0.189999998       20.0000000    
   0.00000000      0.199999988       20.0000000    
   0.00000000      0.209999993       20.0000000    
   0.00000000      0.219999999       20.0000000    
   0.00000000      0.229999989       20.0000000    
   0.00000000      0.239999995       20.0000000    
   0.00000000      0.250000000       20.0000000    
   0.00000000      0.259999990       20.0000000    
   0.00000000      0.269999981       20.0000000    
   0.00000000      0.280000001       20.0000000    
   0.00000000      0.289999992       20.0000000    
   0.00000000      0.299999982       20.0000000    
   0.00000000      0.310000002       20.0000000    
   0.00000000      0.319999993       20.0000000    
   0.00000000      0.329999983       20.0000000    
   0.00000000      0.340000004       20.0000000    
   0.00000000      0.349999994       20.0000000    
   0.00000000      0.359999985       20.0000000    
   0.00000000      0.370000005       20.0000000    
   0.00000000      0.379999995       20.0000000    
   0.00000000      0.389999986       20.0000000    
   0.00000000      0.399999976       20.0000000    
   0.00000000      0.409999996       20.0000000    
   0.00000000      0.419999987       20.0000000    
   0.00000000      0.429999977       20.0000000    
   0.00000000      0.439999998       20.0000000    
   0.00000000      0.449999988       20.0000000    
   0.00000000      0.459999979       20.0000000    
   0.00000000      0.469999999       20.0000000    
   0.00000000      0.479999989       20.0000000    
   0.00000000      0.489999980       20.0000000    
   0.00000000      0.500000000       20.0000000    
   0.00000000      0.509999990       20.0000000    
   0.00000000      0.519999981       20.0000000    
   0.00000000      0.529999971       20.0000000    
   0.00000000      0.539999962       20.0000000    
   0.00000000      0.550000012       20.0000000    
   0.00000000      0.560000002       20.0000000    
   0.00000000      0.569999993       20.0000000    
   0.00000000      0.579999983       20.0000000    
   0.00000000      0.589999974       20.0000000    
   0.00000000      0.599999964       20.0000000    
   0.00000000      0.610000014       20.0000000    
   0.00000000      0.620000005       20.0000000    
   0.00000000      0.629999995       20.0000000    
   0.00000000      0.639999986       20.0000000    
   0.00000000      0.649999976       20.0000000    
   0.00000000      0.659999967       20.0000000    
   0.00000000      0.669999957       20.0000000    
   0.00000000      0.680000007       20.0000000    
   0.00000000      0.689999998       20.0000000    
   0.00000000      0.699999988       85.0000000    
   9.99999978E-03   0.00000000       210.000000    
   9.99999978E-03   9.99999978E-03   114.964622    
   9.99999978E-03   1.99999996E-02   77.3754349    
   9.99999978E-03   2.99999993E-02   59.6786385    
   9.99999978E-03   3.99999991E-02   49.9746971    
   9.99999978E-03   4.99999970E-02   43.9812241    
   9.99999978E-03   5.99999987E-02   39.9407005    
   9.99999978E-03   7.00000003E-02   37.0375595    
   9.99999978E-03   7.99999982E-02   34.8510551    
   9.99999978E-03   8.99999961E-02   33.1444359    
   9.99999978E-03   9.99999940E-02   31.7748775    
   9.99999978E-03  0.109999999       30.6512909    
   9.99999978E-03  0.119999997       29.7129059    
   9.99999978E-03  0.129999995       28.9176579    
   9.99999978E-03  0.140000001       28.2355137    
   9.99999978E-03  0.149999991       27.6444836    
   9.99999978E-03  0.159999996       27.1280861    
   9.99999978E-03  0.170000002       26.6737518    
   9.99999978E-03  0.179999992       26.2717152    
   9.99999978E-03  0.189999998       25.9142895    
   9.99999978E-03  0.199999988       25.5953426    
   9.99999978E-03  0.209999993       25.3099346    
   9.99999978E-03  0.219999999       25.0540314    
   9.99999978E-03  0.229999989       24.8243256    
   9.99999978E-03  0.239999995       24.6180763    
   9.99999978E-03  0.250000000       24.4330006    
   9.99999978E-03  0.259999990       24.2671909    
   9.99999978E-03  0.269999981       24.1190414    
   9.99999978E-03  0.280000001       23.9871979    
   9.99999978E-03  0.289999992       23.8705292    
   9.99999978E-03  0.299999982       23.7680798    
   9.99999978E-03  0.310000002       23.6790504    
   9.99999978E-03  0.319999993       23.6027832    
   9.99999978E-03  0.329999983       23.5387421    
   9.99999978E-03  0.340000004       23.4864998    
   9.99999978E-03  0.349999994       23.4457302    
   9.99999978E-03  0.359999985       23.4162102    
   9.99999978E-03  0.370000005       23.3978024    
   9.99999978E-03  0.379999995       23.3904667    
   9.99999978E-03  0.389999986       23.3942509    
   9.99999978E-03  0.399999976       23.4093037    
   9.99999978E-03  0.409999996       23.4358711    
   9.99999978E-03  0.419999987       23.4743099    
   9.99999978E-03  0.429999977       23.5251026    
   9.99999978E-03  0.439999998       23.5888691    
   9.99999978E-03  0.449999988       23.6663780    
   9.99999978E-03  0.459999979       23.7585926    
   9.99999978E-03  0.469999999       23.8666916    
   9.99999978E-03  0.479999989       23.9921207    
   9.99999978E-03  0.489999980       24.1366405    
   9.99999978E-03  0.500000000       24.3024178    
   9.99999978E-03  0.509999990       24.4921112    
   9.99999978E-03  0.519999981       24.7090111    
   9.99999978E-03  0.529999971       24.9572353    
   9.99999978E-03  0.539999962       25.2419662    
   9.99999978E-03  0.550000012       25.5698090    
   9.99999978E-03  0.560000002       25.9493046    
   9.99999978E-03  0.569999993       26.3916626    
   9.99999978E-03  0.579999983       26.9118767    
   9.99999978E-03  0.589999974       27.5304394    
   9.99999978E-03  0.599999964       28.2760868    
   9.99999978E-03  0.610000014       29.1903534    
   9.99999978E-03  0.620000005       30.3355217    
   9.99999978E-03  0.629999995       31.8092690    
   9.99999978E-03  0.639999986       33.7735519    
   9.99999978E-03  0.649999976       36.5162163    
   9.99999978E-03  0.659999967       40.5952530    
   9.99999978E-03  0.669999957       47.2131386    
   9.99999978E-03  0.680000007       59.2999001    
   9.99999978E-03  0.689999998       84.9972916    
   9.99999978E-03  0.699999988       150.000000    
   1.99999996E-02   0.00000000       210.000000    
   1.99999996E-02   9.99999978E-03   152.483063    
   1.99999996E-02   1.99999996E-02   114.858505    
   1.99999996E-02   2.99999993E-02   91.3644333    
   1.99999996E-02   3.99999991E-02   76.2389297    
   1.99999996E-02   4.99999970E-02   66.0094910    
   1.99999996E-02   5.99999987E-02   58.7440071    
   1.99999996E-02   7.00000003E-02   53.3584824    
   1.99999996E-02   7.99999982E-02   49.2222328    
   1.99999996E-02   8.99999961E-02   45.9518127    
   1.99999996E-02   9.99999940E-02   43.3037834    
   1.99999996E-02  0.109999999       41.1173782    
   1.99999996E-02  0.119999997       39.2826767    
   1.99999996E-02  0.129999995       37.7222099    
   1.99999996E-02  0.140000001       36.3799210    
   1.99999996E-02  0.149999991       35.2143326    
   1.99999996E-02  0.159999996       34.1941185    
   1.99999996E-02  0.170000002       33.2952080    
   1.99999996E-02  0.179999992       32.4988174    
   1.99999996E-02  0.189999998       31.7900963    
   1.99999996E-02  0.199999988       31.1571522    
   1.99999996E-02  0.209999993       30.5903645    
   1.99999996E-02  0.219999999       30.0818672    
   1.99999996E-02  0.229999989       29.6251945    
   1.99999996E-02  0.239999995       29.2149792    
   1.99999996E-02  0.250000000       28.8467388    
   1.99999996E-02  0.259999990       28.5167236    
   1.99999996E-02  0.269999981       28.2217712    
   1.99999996E-02  0.280000001       27.9592247    
   1.99999996E-02  0.289999992       27.7268410    
   1.99999996E-02  0.299999982       27.5227375    
   1.99999996E-02  0.310000002       27.3453407    
   1.99999996E-02  0.319999993       27.1933441    
   1.99999996E-02  0.329999983       27.0656872    
   1.99999996E-02  0.340000004       26.9615231    
   1.99999996E-02  0.349999994       26.8802128    
   1.99999996E-02  0.359999985       26.8213062    
   1.99999996E-02  0.370000005       26.7845345    
   1.99999996E-02  0.379999995       26.7698116    
   1.99999996E-02  0.389999986       26.7772350    
   1.99999996E-02  0.399999976       26.8070908    
   1.99999996E-02  0.409999996       26.8598671    
   1.99999996E-02  0.419999987       26.9362679    
   1.99999996E-02  0.429999977       27.0372372    
   1.99999996E-02  0.439999998       27.1639900    
   1.99999996E-02  0.449999988       27.3180485    
   1.99999996E-02  0.459999979       27.5012989    
   1.99999996E-02  0.469999999       27.7160568    
   1.99999996E-02  0.479999989       27.9651508    
   1.99999996E-02  0.489999980       28.2520313    
   1.99999996E-02  0.500000000       28.5809231    
   1.99999996E-02  0.509999990       28.9570103    
   1.99999996E-02  0.519999981       29.3867016    
   1.99999996E-02  0.529999971       29.8779678    
   1.99999996E-02  0.539999962       30.4408207    
   1.99999996E-02  0.550000012       31.0879669    
   1.99999996E-02  0.560000002       31.8357468    
   1.99999996E-02  0.569999993       32.7054672    
   1.99999996E-02  0.579999983       33.7254028    
   1.99999996E-02  0.589999974       34.9337959    
   1.99999996E-02  0.599999964       36.3835564    
   1.99999996E-02  0.610000014       38.1498070    
   1.99999996E-02  0.620000005       40.3424606    
   1.99999996E-02  0.629999995       43.1280022    
   1.99999996E-02  0.639999986       46.7687187    
   1.99999996E-02  0.649999976       51.6960640    
   1.99999996E-02  0.659999967       58.6516571    
   1.99999996E-02  0.669999957       68.9573975    
   1.99999996E-02  0.680000007       84.9891663    
   1.99999996E-02  0.689999998       110.689262    
   1.99999996E-02  0.699999988       150.000000    
   2.99999993E-02   0.00000000       210.000000    
   2.99999993E-02   9.99999978E-03   170.109116    
   2.99999993E-02   1.99999996E-02   138.211090    
   2.99999993E-02   2.99999993E-02   114.681641    
   2.99999993E-02   3.99999991E-02   97.6071091    
   2.99999993E-02   4.99999970E-02   85.0738068    
   2.99999993E-02   5.99999987E-02   75.6673508    
   2.99999993E-02   7.00000003E-02   68.4301376    
   2.99999993E-02   7.99999982E-02   62.7275810    
   2.99999993E-02   8.99999961E-02   58.1367950    
   2.99999993E-02   9.99999940E-02   54.3710594    
   2.99999993E-02  0.109999999       51.2317619    
   2.99999993E-02  0.119999997       48.5782166    
   2.99999993E-02  0.129999995       46.3085747    
   2.99999993E-02  0.140000001       44.3476295    
   2.99999993E-02  0.149999991       42.6388092    
   2.99999993E-02  0.159999996       41.1388435    
   2.99999993E-02  0.170000002       39.8141403    
   2.99999993E-02  0.179999992       38.6382523    
   2.99999993E-02  0.189999998       37.5901299    
   2.99999993E-02  0.199999988       36.6528091    
   2.99999993E-02  0.209999993       35.8125000    
   2.99999993E-02  0.219999999       35.0578842    
   2.99999993E-02  0.229999989       34.3796158    
   2.99999993E-02  0.239999995       33.7699089    
   2.99999993E-02  0.250000000       33.2222557    
   2.99999993E-02  0.259999990       32.7311897    
   2.99999993E-02  0.269999981       32.2920952    
   2.99999993E-02  0.280000001       31.9010849    
   2.99999993E-02  0.289999992       31.5548725    
   2.99999993E-02  0.299999982       31.2506924    
   2.99999993E-02  0.310000002       30.9862309    
   2.99999993E-02  0.319999993       30.7595654    
   2.99999993E-02  0.329999983       30.5691357    
   2.99999993E-02  0.340000004       30.4136944    
   2.99999993E-02  0.349999994       30.2922974    
   2.99999993E-02  0.359999985       30.2042694    
   2.99999993E-02  0.370000005       30.1492195    
   2.99999993E-02  0.379999995       30.1270123    
   2.99999993E-02  0.389999986       30.1377869    
   2.99999993E-02  0.399999976       30.1819592    
   2.99999993E-02  0.409999996       30.2602406    
   2.99999993E-02  0.419999987       30.3736572    
   2.99999993E-02  0.429999977       30.5235882    
   2.99999993E-02  0.439999998       30.7118034    
   2.99999993E-02  0.449999988       30.9405270    
   2.99999993E-02  0.459999979       31.2124996    
   2.99999993E-02  0.469999999       31.5310898    
   2.99999993E-02  0.479999989       31.9003944    
   2.99999993E-02  0.489999980       32.3254128    
   2.99999993E-02  0.500000000       32.8122292    
   2.99999993E-02  0.509999990       33.3683090    
   2.99999993E-02  0.519999981       34.0028152    
   2.99999993E-02  0.529999971       34.7271118    
   2.99999993E-02  0.539999962       35.5553818    
   2.99999993E-02  0.550000012       36.5054970    
   2.99999993E-02  0.560000002       37.6002464    
   2.99999993E-02  0.569999993       38.8690605    
   2.99999993E-02  0.579999983       40.3504715    
   2.99999993E-02  0.589999974       42.0957832    
   2.99999993E-02  0.599999964       44.1745377    
   2.99999993E-02  0.610000014       46.6828575    
   2.99999993E-02  0.620000005       49.7565155    
   2.99999993E-02  0.629999995       53.5915680    
   2.99999993E-02  0.639999986       58.4772568    
   2.99999993E-02  0.649999976       64.8476639    
   2.99999993E-02  0.659999967       73.3579025    
   2.99999993E-02  0.669999957       84.9756241    
   2.99999993E-02  0.680000007       101.010101    
   2.99999993E-02  0.689999998       122.770607    
   2.99999993E-02  0.699999988       150.000000    
   3.99999991E-02   0.00000000       210.000000    
   3.99999991E-02   9.99999978E-03   179.742294    
   3.99999991E-02   1.99999996E-02   153.195068    
   3.99999991E-02   2.99999993E-02   131.543945    
   3.99999991E-02   3.99999991E-02   114.434074    
   3.99999991E-02   4.99999970E-02   101.011299    
   3.99999991E-02   5.99999987E-02   90.4214554    
   3.99999991E-02   7.00000003E-02   81.9671249    
   3.99999991E-02   7.99999982E-02   75.1211700    
   3.99999991E-02   8.99999961E-02   69.4967270    
   3.99999991E-02   9.99999940E-02   64.8118973    
   3.99999991E-02  0.109999999       60.8604012    
   3.99999991E-02  0.119999997       57.4898453    
   3.99999991E-02  0.129999995       54.5862427    
   3.99999991E-02  0.140000001       52.0632172    
   3.99999991E-02  0.149999991       49.8544350    
   3.99999991E-02  0.159999996       47.9083138    
   3.99999991E-02  0.170000002       46.1842499    
   3.99999991E-02  0.179999992       44.6499290    
   3.99999991E-02  0.189999998       43.2793617    
   3.99999991E-02  0.199999988       42.0514565    
   3.99999991E-02  0.209999993       40.9489365    
   3.99999991E-02  0.219999999       39.9575539    
   3.99999991E-02  0.229999989       39.0654678    
   3.99999991E-02  0.239999995       38.2627831    
   3.99999991E-02  0.250000000       37.5411911    
   3.99999991E-02  0.259999990       36.8936844    
   3.99999991E-02  0.269999981       36.3143425    
   3.99999991E-02  0.280000001       35.7981529    
   3.99999991E-02  0.289999992       35.3408737    
   3.99999991E-02  0.299999982       34.9389305    
   3.99999991E-02  0.310000002       34.5893211    
   3.99999991E-02  0.319999993       34.2895584    
   3.99999991E-02  0.329999983       34.0376015    
   3.99999991E-02  0.340000004       33.8318291    
   3.99999991E-02  0.349999994       33.6710052    
   3.99999991E-02  0.359999985       33.5542603    
   3.99999991E-02  0.370000005       33.4810600    
   3.99999991E-02  0.379999995       33.4512329    
   3.99999991E-02  0.389999986       33.4649429    
   3.99999991E-02  0.399999976       33.5227242    
   3.99999991E-02  0.409999996       33.6254768    
   3.99999991E-02  0.419999987       33.7745323    
   3.99999991E-02  0.429999977       33.9716568    
   3.99999991E-02  0.439999998       34.2191124    
   3.99999991E-02  0.449999988       34.5197525    
   3.99999991E-02  0.459999979       34.8770866    
   3.99999991E-02  0.469999999       35.2954102    
   3.99999991E-02  0.479999989       35.7799301    
   3.99999991E-02  0.489999980       36.3369865    
   3.99999991E-02  0.500000000       36.9742775    
   3.99999991E-02  0.509999990       37.7011757    
   3.99999991E-02  0.519999981       38.5291405    
   3.99999991E-02  0.529999971       39.4722862    
   3.99999991E-02  0.539999962       40.5480919    
   3.99999991E-02  0.550000012       41.7783852    
   3.99999991E-02  0.560000002       43.1906891    
   3.99999991E-02  0.569999993       44.8200531    
   3.99999991E-02  0.579999983       46.7116356    
   3.99999991E-02  0.589999974       48.9243355    
   3.99999991E-02  0.599999964       51.5359497    
   3.99999991E-02  0.610000014       54.6505775    
   3.99999991E-02  0.620000005       58.4091797    
   3.99999991E-02  0.629999995       63.0044899    
   3.99999991E-02  0.639999986       68.7010651    
   3.99999991E-02  0.649999976       75.8594437    
   3.99999991E-02  0.659999967       84.9566803    
   3.99999991E-02  0.669999957       96.5770950    
   3.99999991E-02  0.680000007       111.305000    
   3.99999991E-02  0.689999998       129.383072    
   3.99999991E-02  0.699999988       150.000000    
   4.99999970E-02   0.00000000       210.000000    
   4.99999970E-02   9.99999978E-03   185.664993    
   4.99999970E-02   1.99999996E-02   163.282974    
   4.99999970E-02   2.99999993E-02   143.864975    
   4.99999970E-02   3.99999991E-02   127.573921    
   4.99999970E-02   4.99999970E-02   114.115860    
   4.99999970E-02   5.99999987E-02   103.040047    
   4.99999970E-02   7.00000003E-02   93.8957291    
   4.99999970E-02   7.99999982E-02   86.2932358    
   4.99999970E-02   8.99999961E-02   79.9170532    
   4.99999970E-02   9.99999940E-02   74.5193939    
   4.99999970E-02  0.109999999       69.9081039    
   4.99999970E-02  0.119999997       65.9345169    
   4.99999970E-02  0.129999995       62.4833374    
   4.99999970E-02  0.140000001       59.4645576    
   4.99999970E-02  0.149999991       56.8074036    
   4.99999970E-02  0.159999996       54.4557266    
   4.99999970E-02  0.170000002       52.3646202    
   4.99999970E-02  0.179999992       50.4978485    
   4.99999970E-02  0.189999998       48.8259354    
   4.99999970E-02  0.199999988       47.3247147    
   4.99999970E-02  0.209999993       45.9742393    
   4.99999970E-02  0.219999999       44.7579269    
   4.99999970E-02  0.229999989       43.6619186    
   4.99999970E-02  0.239999995       42.6745644    
   4.99999970E-02  0.250000000       41.7860374    
   4.99999970E-02  0.259999990       40.9880142    
   4.99999970E-02  0.269999981       40.2734375    
   4.99999970E-02  0.280000001       39.6363068    
   4.99999970E-02  0.289999992       39.0715408    
   4.99999970E-02  0.299999982       38.5748329    
   4.99999970E-02  0.310000002       38.1425705    
   4.99999970E-02  0.319999993       37.7717400    
   4.99999970E-02  0.329999983       37.4598770    
   4.99999970E-02  0.340000004       37.2050133    
   4.99999970E-02  0.349999994       37.0056458    
   4.99999970E-02  0.359999985       36.8607025    
   4.99999970E-02  0.370000005       36.7695351    
   4.99999970E-02  0.379999995       36.7319145    
   4.99999970E-02  0.389999986       36.7480278    
   4.99999970E-02  0.399999976       36.8185043    
   4.99999970E-02  0.409999996       36.9444199    
   4.99999970E-02  0.419999987       37.1273460    
   4.99999970E-02  0.429999977       37.3693848    
   4.99999970E-02  0.439999998       37.6732368    
   4.99999970E-02  0.449999988       38.0422859    
   4.99999970E-02  0.459999979       38.4806938    
   4.99999970E-02  0.469999999       38.9935265    
   4.99999970E-02  0.479999989       39.5869293    
   4.99999970E-02  0.489999980       40.2683334    
   4.99999970E-02  0.500000000       41.0467224    
   4.99999970E-02  0.509999990       41.9329681    
   4.99999970E-02  0.519999981       42.9402847    
   4.99999970E-02  0.529999971       44.0848045    
   4.99999970E-02  0.539999962       45.3863182    
   4.99999970E-02  0.550000012       46.8692703    
   4.99999970E-02  0.560000002       48.5640678    
   4.99999970E-02  0.569999993       50.5088234    
   4.99999970E-02  0.579999983       52.7516823    
   4.99999970E-02  0.589999974       55.3539734    
   4.99999970E-02  0.599999964       58.3943596    
   4.99999970E-02  0.610000014       61.9743195    
   4.99999970E-02  0.620000005       66.2251282    
   4.99999970E-02  0.629999995       71.3161469    
   4.99999970E-02  0.639999986       77.4630737    
   4.99999970E-02  0.649999976       84.9323654    
   4.99999970E-02  0.659999967       94.0322800    
   4.99999970E-02  0.669999957       105.071083    
   4.99999970E-02  0.680000007       118.249748    
   4.99999970E-02  0.689999998       133.456680    
   4.99999970E-02  0.699999988       150.000000    
   5.99999987E-02   0.00000000       210.000000    
   5.99999987E-02   9.99999978E-03   189.634689    
   5.99999987E-02   1.99999996E-02   170.406845    
   5.99999987E-02   2.99999993E-02   153.059097    
   5.99999987E-02   3.99999991E-02   137.880783    
   5.99999987E-02   4.99999970E-02   124.838158    
   5.99999987E-02   5.99999987E-02   113.727150    
   5.99999987E-02   7.00000003E-02   104.282524    
   5.99999987E-02   7.99999982E-02   96.2389984    
   5.99999987E-02   8.99999961E-02   89.3588486    
   5.99999987E-02   9.99999940E-02   83.4405441    
   5.99999987E-02  0.109999999       78.3180847    
   5.99999987E-02  0.119999997       73.8567886    
   5.99999987E-02  0.129999995       69.9480286    
   5.99999987E-02  0.140000001       66.5042801    
   5.99999987E-02  0.149999991       63.4548874    
   5.99999987E-02  0.159999996       60.7425690    
   5.99999987E-02  0.170000002       58.3206596    
   5.99999987E-02  0.179999992       56.1509132    
   5.99999987E-02  0.189999998       54.2018127    
   5.99999987E-02  0.199999988       52.4472313    
   5.99999987E-02  0.209999993       50.8653793    
   5.99999987E-02  0.219999999       49.4379997    
   5.99999987E-02  0.229999989       48.1497192    
   5.99999987E-02  0.239999995       46.9875221    
   5.99999987E-02  0.250000000       45.9403839    
   5.99999987E-02  0.259999990       44.9989052    
   5.99999987E-02  0.269999981       44.1550865    
   5.99999987E-02  0.280000001       43.4021072    
   5.99999987E-02  0.289999992       42.7341537    
   5.99999987E-02  0.299999982       42.1462975    
   5.99999987E-02  0.310000002       41.6343880    
   5.99999987E-02  0.319999993       41.1949577    
   5.99999987E-02  0.329999983       40.8251572    
   5.99999987E-02  0.340000004       40.5227089    
   5.99999987E-02  0.349999994       40.2858620    
   5.99999987E-02  0.359999985       40.1133652    
   5.99999987E-02  0.370000005       40.0044594    
   5.99999987E-02  0.379999995       39.9588585    
   5.99999987E-02  0.389999986       39.9767570    
   5.99999987E-02  0.399999976       40.0588531    
   5.99999987E-02  0.409999996       40.2063599    
   5.99999987E-02  0.419999987       40.4210472    
   5.99999987E-02  0.429999977       40.7052994    
   5.99999987E-02  0.439999998       41.0621681    
   5.99999987E-02  0.449999988       41.4954643    
   5.99999987E-02  0.459999979       42.0098724    
   5.99999987E-02  0.469999999       42.6110725    
   5.99999987E-02  0.479999989       43.3059311    
   5.99999987E-02  0.489999980       44.1026993    
   5.99999987E-02  0.500000000       45.0113068    
   5.99999987E-02  0.509999990       46.0436897    
   5.99999987E-02  0.519999981       47.2142296    
   5.99999987E-02  0.529999971       48.5403290    
   5.99999987E-02  0.539999962       50.0431099    
   5.99999987E-02  0.550000012       51.7483139    
   5.99999987E-02  0.560000002       53.6874962    
   5.99999987E-02  0.569999993       55.8994865    
   5.99999987E-02  0.579999983       58.4323044    
   5.99999987E-02  0.589999974       61.3455238    
   5.99999987E-02  0.599999964       64.7131882    
   5.99999987E-02  0.610000014       68.6271973    
   5.99999987E-02  0.620000005       73.2008743    
   5.99999987E-02  0.629999995       78.5718994    
   5.99999987E-02  0.639999986       84.9027252    
   5.99999987E-02  0.649999976       92.3746567    
   5.99999987E-02  0.659999967       101.168999    
   5.99999987E-02  0.669999957       111.425209    
   5.99999987E-02  0.680000007       123.166214    
   5.99999987E-02  0.689999998       136.193893    
   5.99999987E-02  0.699999988       150.000000    
   7.00000003E-02   0.00000000       210.000000    
   7.00000003E-02   9.99999978E-03   192.466919    
   7.00000003E-02   1.99999996E-02   175.650604    
   7.00000003E-02   2.99999993E-02   160.083786    
   7.00000003E-02   3.99999991E-02   146.051956    
   7.00000003E-02   4.99999970E-02   133.628845    
   7.00000003E-02   5.99999987E-02   122.747879    
   7.00000003E-02   7.00000003E-02   113.268211    
   7.00000003E-02   7.99999982E-02   105.021370    
   7.00000003E-02   8.99999961E-02   97.8388214    
   7.00000003E-02   9.99999940E-02   91.5658340    
   7.00000003E-02  0.109999999       86.0669098    
   7.00000003E-02  0.119999997       81.2265320    
   7.00000003E-02  0.129999995       76.9477081    
   7.00000003E-02  0.140000001       73.1496506    
   7.00000003E-02  0.149999991       69.7652969    
   7.00000003E-02  0.159999996       66.7390060    
   7.00000003E-02  0.170000002       64.0245285    
   7.00000003E-02  0.179999992       61.5833282    
   7.00000003E-02  0.189999998       59.3831787    
   7.00000003E-02  0.199999988       57.3970184    
   7.00000003E-02  0.209999993       55.6020508    
   7.00000003E-02  0.219999999       53.9789848    
   7.00000003E-02  0.229999989       52.5114288    
   7.00000003E-02  0.239999995       51.1854324    
   7.00000003E-02  0.250000000       49.9890709    
   7.00000003E-02  0.259999990       48.9121361    
   7.00000003E-02  0.269999981       47.9459038    
   7.00000003E-02  0.280000001       47.0828743    
   7.00000003E-02  0.289999992       46.3166618    
   7.00000003E-02  0.299999982       45.6418152    
   7.00000003E-02  0.310000002       45.0537300    
   7.00000003E-02  0.319999993       44.5485458    
   7.00000003E-02  0.329999983       44.1230927    
   7.00000003E-02  0.340000004       43.7748070    
   7.00000003E-02  0.349999994       43.5017281    
   7.00000003E-02  0.359999985       43.3024483    
   7.00000003E-02  0.370000005       43.1760864    
   7.00000003E-02  0.379999995       43.1223030    
   7.00000003E-02  0.389999986       43.1412926    
   7.00000003E-02  0.399999976       43.2337914    
   7.00000003E-02  0.409999996       43.4011154    
   7.00000003E-02  0.419999987       43.6451874    
   7.00000003E-02  0.429999977       43.9686012    
   7.00000003E-02  0.439999998       44.3746719    
   7.00000003E-02  0.449999988       44.8675346    
   7.00000003E-02  0.459999979       45.4522591    
   7.00000003E-02  0.469999999       46.1349640    
   7.00000003E-02  0.479999989       46.9230194    
   7.00000003E-02  0.489999980       47.8252296    
   7.00000003E-02  0.500000000       48.8521233    
   7.00000003E-02  0.509999990       50.0162506    
   7.00000003E-02  0.519999981       51.3326187    
   7.00000003E-02  0.529999971       52.8191795    
   7.00000003E-02  0.539999962       54.4974709    
   7.00000003E-02  0.550000012       56.3933868    
   7.00000003E-02  0.560000002       58.5381165    
   7.00000003E-02  0.569999993       60.9693260    
   7.00000003E-02  0.579999983       63.7325211    
   7.00000003E-02  0.589999974       66.8826294    
   7.00000003E-02  0.599999964       70.4856720    
   7.00000003E-02  0.610000014       74.6204071    
   7.00000003E-02  0.620000005       79.3792648    
   7.00000003E-02  0.629999995       84.8678589    
   7.00000003E-02  0.639999986       91.2012634    
   7.00000003E-02  0.649999976       98.4945374    
   7.00000003E-02  0.659999967       106.843842    